LAMMPS data file via write_data, version 29 Aug 2024, timestep = 80, units = metal

23558 atoms
5 atom types

0 61.644723157577054 xlo xhi
0 61.644723157577054 ylo yhi
0 61.644723157577054 zlo zhi

Masses

1 1.0078
2 12.011
3 14.0067
4 15.999
5 32.065

Atoms # full/kk

6126 2 4 0 1.8569734187503826 1.126498881175268 0.5849562382904833 1 0 0
18385 2 1 0 15.805899033136646 0.36325258410297717 27.716779717329985 0 0 0
6128 2 1 0 1.3534071421715266 0.41254923214751177 1.0168581983397667 1 0 0
9775 2 1 0 4.199012791893902 3.0126051756523635 3.5528533161925537 1 1 1
9907 2 1 0 3.2675423190224295 0.21199748981064678 1.203925932834113 1 1 1
18121 2 1 0 2.971127412718592 3.021273786138058 0.14665990963855072 0 1 0
3480 2 4 0 6.538674418476666 1.2902864068741593 0.4022877036999951 0 0 1
3481 2 1 0 7.470097891474617 1.5822007448624527 0.38029065442181864 0 0 1
3482 2 1 0 6.610842974418108 0.3355744724504546 0.5559062147512972 0 0 1
3528 2 4 0 4.60362503859966 2.841440236712358 1.760131951538271 1 1 0
3529 2 1 0 4.777309722720258 3.7912203047218247 1.6489579790809066 1 1 0
3530 2 1 0 5.365102055296156 2.3783182781315944 1.3774956947750265 1 1 0
6129 2 4 0 8.003939398948436 0.6331605560284553 3.626007650768156 0 1 1
64 1 1 0 30.70598629625871 28.483675777397426 27.171620131752924 0 0 0
13310 2 1 0 7.23334741758238 2.366829442824307 4.133365828589716 -1 0 0
6131 2 1 0 8.879700516164233 1.0018525222411707 3.418231435839777 0 1 1
7252 2 1 0 13.227903318223499 2.363534990959673 0.4073048394842566 0 0 1
7686 2 4 0 10.224737781946033 2.2093715939265857 2.6171379031603634 0 1 1
7687 2 1 0 9.688736554882096 3.0242145438754755 2.552957568306103 0 1 1
7688 2 1 0 10.899655111894903 2.4414594139448167 3.2729376179050003 0 1 1
13268 2 1 0 12.56057717126319 3.914122242011226 2.193999426411298 0 0 0
14598 2 4 0 9.176211473189872 1.8544962930498639 0.024559837618366328 1 0 0
14599 2 1 0 9.775518913468254 1.9997129259054502 0.7757563186075762 1 0 0
13266 2 4 0 13.252335855074362 3.2434100840706366 2.0310235594911727 0 0 0
13267 2 1 0 13.94065361668873 3.433408475399148 2.687479763602902 0 0 0
15538 2 1 0 17.0054593534294 1.038711485299072 0.4101396721646693 0 0 1
17877 2 4 0 14.697723498575044 3.346685241218749 4.459865075408243 0 1 0
17959 2 1 0 16.947845958671287 3.184159433817872 2.8231629741675315 0 1 0
21981 2 4 0 13.239162972750238 0.5586158406786784 2.9010348457202437 -1 1 1
21982 2 1 0 13.900131014382831 0.07234550884432137 2.376069453793263 -1 1 1
21983 2 1 0 13.147986653153566 1.452797711832303 2.5290094185397107 -1 1 1
7099 2 1 0 20.7843298777719 4.149208367068935 0.6578842073790655 0 0 0
7100 2 1 0 20.403561787365287 2.6714506297839544 0.3382752489899873 0 0 0
8301 2 4 0 20.20377884106989 0.937559197324953 0.7837676089947526 -1 0 0
8302 2 1 0 20.64118341927869 1.1514849225856294 1.623843650963772 -1 0 0
8303 2 1 0 19.296757328414134 0.6513028696021309 0.9812394449788371 -1 0 0
11134 2 1 0 19.579537850264433 0.34507326005407285 4.169071700657007 0 1 0
13524 2 4 0 21.53257112172628 2.497586879115476 2.748009274409756 0 0 0
17073 2 4 0 18.29087251828962 1.3752600455807522 3.517362137704201 0 0 1
17074 2 1 0 17.985231060141576 1.1155470067255837 2.6291453343765117 0 0 1
17075 2 1 0 17.647077224052087 0.9767217856769195 4.130269654645703 0 0 1
17960 2 1 0 18.0320186000416 4.252115935735385 2.786181170607977 0 1 0
23268 2 4 0 19.79057014703805 4.7568785767462325 3.2608344880791256 0 0 0
23270 2 1 0 20.37222396344102 3.9784461241760454 3.207818745375447 0 0 0
4710 2 4 0 24.539651584842677 0.5168190725403462 2.5833383213203676 0 1 1
4712 2 1 0 24.866349885249676 0.6905081087912913 1.6869952943207969 0 1 1
7203 2 4 0 25.818081609437264 0.527351335808386 0.011283697934105755 0 0 0
12453 2 4 0 23.634264990413925 3.54147799455304 1.3000767519865342 -1 1 1
12454 2 1 0 24.32874768303292 3.820771748317989 1.9077567359096848 -1 1 1
12455 2 1 0 23.36093127033091 4.365717689326064 0.8620424752857867 -1 1 1
13525 2 1 0 21.888838508617383 2.23979830572674 3.6172468888675424 0 0 0
13526 2 1 0 22.30190580225452 2.83395562087688 2.245262341708109 0 0 0
15900 2 4 0 25.102627949306715 2.5572774969310323 4.448917213245206 1 0 1
15902 2 1 0 24.95104681314981 1.7957060891808672 3.859159094768305 1 0 1
16427 2 1 0 25.76081367948907 4.058441122214598 3.5943328502093523 0 0 1
9543 2 4 0 29.690616748930555 2.755797751544899 1.850972032246916 0 1 0
9544 2 1 0 30.32732186411582 2.3230745212550423 1.2587056296745103 0 1 0
9545 2 1 0 30.257659017362737 3.3155392946201716 2.409878749489404 0 1 0
12697 2 1 0 28.372191601753624 2.3527820771978 0.4086860179132368 -1 -1 1
20004 2 4 0 29.1745583806987 0.22677252847553095 3.0233593154839857 0 0 1
14983 2 1 0 30.663447082418653 12.156313289303656 22.202559832512105 0 0 1
20006 2 1 0 29.232938407327392 1.1614484717780968 2.757157973031253 0 0 1
7226 2 1 0 4.3521073039892055 6.23449530129997 1.7585213695776867 0 0 0
12360 2 4 0 3.275615435077252 7.6914095343355715 2.6377695311806546 0 0 1
12361 2 1 0 3.826471287295212 8.062090459922677 3.344401804197171 0 0 1
12362 2 1 0 3.339850898216117 8.35898229100599 1.9256890494280736 0 0 1
12906 2 4 0 0.4097144837294603 7.223182246510039 2.840186561080793 0 2 0
12907 2 1 0 1.3077365773822531 7.408380104402756 2.5404207821965628 0 2 0
12908 2 1 0 0.35473469011642195 7.610002079150351 3.724877384690975 0 2 0
13720 2 1 0 2.5186546829055514 6.062781515617479 4.0873879123747185 0 1 1
3230 2 1 0 6.474730823276217 5.370212959071427 0.4825560376482847 1 1 0
5295 2 4 0 8.755578195226482 4.487895687407691 2.4494451322017032 0 0 0
5296 2 1 0 8.231973126111372 4.610941771503237 1.642066268212092 0 0 0
5297 2 1 0 8.137716462415408 4.233142402202023 3.1615195151463364 0 0 0
7224 2 4 0 5.111193839052073 5.634685965716458 1.7301844439594483 0 0 0
7225 2 1 0 5.526099866305921 5.772663642353149 2.601323910594842 0 0 0
8016 2 4 0 6.942374990959279 8.087894235097908 2.1912644474548437 1 0 1
8017 2 1 0 7.856211508478832 8.300998811001172 1.9541827840205832 1 0 1
8018 2 1 0 6.501252802075324 7.977965839258173 1.3352638841817208 1 0 1
20286 2 4 0 5.933541115286931 5.769237672709171 4.4434437429929305 1 1 1
20344 2 1 0 5.971900234109738 8.619123479143765 3.585894304592054 1 0 1
2814 2 4 0 11.472376489895964 5.390162159952618 2.542825949141923 0 0 0
2815 2 1 0 10.520388253727948 5.207396916292254 2.628372075704785 0 0 0
2816 2 1 0 11.553012903634631 5.967044532699863 1.7595099439587498 0 0 0
7605 2 4 0 11.910256183182348 7.053826906194711 0.3438033099286031 1 1 0
7606 2 1 0 12.716033297797074 7.410659088259784 0.7451680381593592 1 1 0
8091 2 4 0 9.271780164956493 8.801675856843456 0.7403876520201226 0 0 0
8093 2 1 0 9.27372205798613 8.076849213106735 0.09253401398608213 0 0 0
21500 2 1 0 12.231881765674457 6.109159646897796 4.1365627145273685 -1 1 0
3069 2 4 0 17.261538304318698 7.213818021682489 1.7077021727640525 1 1 1
4200 2 4 0 15.371422667105275 6.774293325591939 4.000861543280721 0 0 0
16335 2 4 0 14.138263811343098 8.051917239887336 1.866218018326145 0 0 1
16336 2 1 0 14.659588014233098 7.570752489495666 2.539290631779814 0 0 1
16337 2 1 0 13.569773085412585 8.657250522771484 2.354639929578458 0 0 1
17924 2 1 0 16.828385247417042 4.551096465187656 0.790665404142984 1 0 1
17958 2 4 0 17.115051885788095 4.078412482353868 2.5112441149690072 0 1 0
19019 2 1 0 14.856260077081842 7.246208701662988 0.1716554620309597 0 0 1
3070 2 1 0 17.827537662466344 7.128866487762689 2.489667480054008 1 1 1
3071 2 1 0 17.846089853816398 7.231436439542741 0.9381075722154429 1 1 1
9142 2 1 0 19.672928544679177 9.07798024453477 3.936773924512793 0 0 1
12839 2 1 0 21.58551104161389 7.173146095532266 3.440252811900891 0 1 0
13251 2 4 0 20.714767741357125 6.707257498945136 1.5322574050030424 1 0 1
13252 2 1 0 20.131506914129627 7.151674407181307 0.897921261707002 1 0 1
13253 2 1 0 21.548459725305865 6.544012284848885 1.049894738644627 1 0 1
18060 2 4 0 18.745805352425545 7.31295778648165 4.199297429550987 0 1 0
18062 2 1 0 19.073423479778786 6.419352489074238 4.374820803370022 0 1 0
23269 2 1 0 20.109237385782745 5.378027161420629 2.583956735699911 0 0 0
10767 2 4 0 23.002657299951196 6.020144372662892 0.20428057832493954 0 0 0
10768 2 1 0 23.810218802156093 6.531314363072684 0.3806243642453337 0 0 0
12837 2 4 0 22.310523489887576 7.326930580763479 4.062047273429713 0 1 0
12838 2 1 0 22.60359006878777 6.442101424261703 4.362236508087403 0 1 0
16425 2 4 0 25.93231757520149 4.891452627967534 3.125243398637273 0 0 1
18222 2 4 0 25.01748430720222 7.962504773062595 0.746725670942627 1 -1 1
18223 2 1 0 24.501388306144754 8.460598417644196 1.402525284366424 1 -1 1
18224 2 1 0 25.908623043045594 8.32381397074291 0.864248020625 1 -1 1
6119 2 1 0 30.413619993408496 7.346913077990381 3.8755019451069392 0 0 0
16426 2 1 0 26.106451052929277 5.531615683233957 3.8307323133040523 0 0 1
19434 2 4 0 27.68524931544667 5.138637660942672 0.9909410291357497 1 1 0
19435 2 1 0 27.044429498594226 5.096562968898771 1.7253937451729509 1 1 0
19436 2 1 0 28.37782675383924 4.524417886143686 1.2541829602970214 1 1 0
9483 2 4 0 2.2206070739934507 13.413700761238221 1.175906681217941 1 1 0
9485 2 1 0 2.4521532103501187 13.290695287205036 0.24174167746551367 1 1 0
9693 2 4 0 0.5126853596874896 11.528191661230597 2.2617043938920993 -1 0 1
9694 2 1 0 0.5520283281689161 10.776433822112493 1.6437724406212886 -1 0 1
9695 2 1 0 1.1782362865898504 12.153223817268875 1.9174016852119595 -1 0 1
11796 2 4 0 4.421114926622865 11.507006445193378 3.2946320630311803 0 0 0
11798 2 1 0 4.596065313267026 11.724703584932923 2.3629039636962283 0 0 0
13713 2 4 0 3.663149036882362 9.387976480113638 0.5164289551391409 0 0 0
13714 2 1 0 3.9637593902883856 10.308387720478226 0.5754673774849213 0 0 0
18567 2 4 0 0.9559185633795606 9.835081954605599 0.0287436326635835 1 0 1
18569 2 1 0 1.846683944067261 9.455803975503708 0.04924324290086595 1 0 1
10303 2 1 0 8.260325416755272 10.227583928043181 0.32138510885167654 1 0 0
10343 2 1 0 7.668704120910103 12.907642223244318 3.1930556081348564 0 0 0
11797 2 1 0 4.731766897432373 10.595942211366024 3.436264128646765 0 0 0
22314 2 4 0 8.379169424846605 11.319375979416451 3.9843063001845054 0 0 0
22316 2 1 0 7.929982687277905 10.471343333640938 3.972228518612813 0 0 0
23244 2 4 0 5.161333984051326 11.754624493462934 0.5820134421084819 1 1 0
23246 2 1 0 6.0643880171078415 11.42765956760834 0.40386121652102325 1 1 0
23382 2 4 0 8.769940682854857 13.415509282457721 0.10954528111724472 0 1 1
23383 2 1 0 8.692239817979065 13.690441900446025 1.0342527425619839 0 1 1
8092 2 1 0 10.203217369551908 9.018637977472183 0.8959907102155917 0 0 0
9150 2 4 0 12.102342996414935 12.697553846217826 1.3239202003633215 1 1 0
17919 2 4 0 11.852144026783039 9.933085252984805 1.5198289134859524 0 0 1
17920 2 1 0 11.475791055739554 9.912192636867207 2.4160087327337245 0 0 1
17921 2 1 0 11.991699475687954 10.890804456815133 1.388645190194609 0 0 1
18429 2 4 0 11.0255028951449 10.711274900114075 4.024486564800449 1 1 0
18430 2 1 0 11.789415889179814 11.309728227523589 3.9792663160634967 1 1 0
22315 2 1 0 9.331054716968588 11.111056300981607 3.8871582778342666 0 0 0
3183 2 4 0 15.616807979273625 12.854250234080496 2.1734246501165453 0 0 1
3185 2 1 0 16.362495229339697 12.502758145358479 2.6743650518218045 0 0 1
3263 2 1 0 15.151915788111044 11.96670955072995 0.48827296417533844 1 1 0
8438 2 1 0 13.817801381393823 10.271249143474183 4.445256875750647 0 -1 0
14274 2 4 0 16.519040206027416 9.876410799431637 1.8460792348417088 0 0 0
14275 2 1 0 16.79151115700536 8.940143517378997 1.8274010206904066 0 0 0
14276 2 1 0 15.565063117889343 9.815436392493059 1.9406351271244264 0 0 0
22710 2 4 0 13.629260774619297 12.123257186168232 4.095037165189682 0 1 0
22712 2 1 0 14.134884896049407 12.486133354439222 3.352702126936497 0 1 0
9141 2 4 0 20.104758958476065 9.930341466650551 3.7663828900757204 0 0 1
9143 2 1 0 20.72252338826618 10.053057725149882 4.503204674480996 0 0 1
22020 2 4 0 18.294241624893285 11.79994919017709 2.515192885826698 0 0 1
22021 2 1 0 17.655513936619972 11.072061644294726 2.3700163042877875 0 0 1
22022 2 1 0 18.856685988041093 11.46401011246187 3.2281531300497255 0 0 1
22555 2 1 0 18.758875085656786 11.530520794894358 0.6164890032601036 0 0 0
23169 2 4 0 21.218415529834125 10.21586176421751 1.2081701720382108 1 0 0
23171 2 1 0 20.746402139830604 10.149638995800498 2.059268996754462 1 0 0
11466 2 4 0 24.502205782229904 12.058740043306841 2.2500455329361584 0 0 0
11467 2 1 0 25.427297655253728 12.211714710074727 1.9850105792165218 0 0 0
11468 2 1 0 24.42396527048268 11.112401792966772 2.430527013974018 0 0 0
11782 2 1 0 22.023135183962363 11.872755939147908 0.4441286280683899 0 1 1
11783 2 1 0 23.36351002978328 12.440898197709828 0.8895197866298268 0 1 1
12319 2 1 0 23.947550651005468 13.245048835274865 3.992406971913907 1 1 1
14682 2 4 0 23.522724522901925 9.33674388978945 2.6319564766935226 0 0 -1
14683 2 1 0 22.777295337526812 9.604479811000225 2.06634179780684 0 0 -1
14684 2 1 0 23.186841458917208 8.568400737562577 3.1331032857758454 0 0 -1
4058 2 1 0 10.35840065481058 26.754435244378403 0.06878144070995747 -1 1 1
10285 2 1 0 30.51076397412778 10.768725863090756 4.0805833841503825 1 0 0
14420 2 1 0 27.311284229840346 12.80832273844342 4.409676601245237 0 1 1
18705 2 4 0 27.050443142177663 12.63617141568911 1.004114706389965 0 1 0
18707 2 1 0 27.83006292478079 12.884609959410072 1.528835528700602 0 1 0
21525 2 4 0 27.49541401571364 10.942857618082488 3.8160836445928057 0 1 1
21527 2 1 0 28.37853958975503 10.984714741371583 4.227288804510131 0 1 1
23265 2 4 0 27.274205764106096 9.683594526951818 1.1669364305048506 0 0 1
23266 2 1 0 27.104134867326056 10.570987593322194 0.8236162275031579 0 0 1
23267 2 1 0 27.51950347927201 9.855989562744824 2.0886326415218686 0 0 1
2725 2 1 0 0.7989719365869772 17.387471728473756 4.4070700469513815 0 0 0
3390 2 4 0 3.7129127493941603 15.500842454642564 2.3708184334676696 1 1 0
3391 2 1 0 3.7547362276763896 15.507432377202372 3.3469441726143794 1 1 0
3392 2 1 0 3.375307574086655 16.368582717976448 2.100954457621954 1 1 0
4635 2 4 0 1.0367080033873035 15.59165739072479 4.492197036725898 0 1 0
4636 2 1 0 1.928108425869408 15.346499141077535 4.793132309793752 0 1 0
4999 2 1 0 0.12403357926924101 15.804589804790714 0.9005704886734237 0 0 1
5000 2 1 0 0.5643961838171063 14.38590337867146 1.2967234963635568 0 0 1
9484 2 1 0 2.81572760949642 14.071525746527906 1.5746949207865943 1 1 0
10341 2 4 0 7.747107730844247 13.75354353539968 2.7260106715277903 0 0 0
10342 2 1 0 7.553665999367055 14.463534803128177 3.360024377198212 0 0 0
14571 2 4 0 7.669251548829356 16.196011784699923 4.07731332093154 0 0 1
14572 2 1 0 7.0126861099678575 16.893854522964425 4.034285313998185 0 0 1
14573 2 1 0 8.402520022737194 16.477869638092233 3.497910383491863 0 0 1
20022 2 4 0 7.867052964808322 17.198665075984984 0.49457875360483033 0 1 1
20023 2 1 0 7.091587402648261 16.617770061053868 0.5524639517357361 0 1 1
20024 2 1 0 8.539125669330275 16.73055034758268 1.014164756663983 0 1 1
21717 2 4 0 5.951793748092093 15.099571759761062 0.8569363692750872 0 0 1
21718 2 1 0 5.177617642645136 15.253227738238191 1.435596214400056 0 0 1
21719 2 1 0 6.508830848602237 14.478080741348606 1.3544710242445777 0 0 1
9151 2 1 0 11.672479661498944 13.110591630290164 2.089642020179939 1 1 0
9152 2 1 0 12.843147356594535 13.279963584557548 1.1060020531652999 1 1 0
15711 2 4 0 9.788928158871443 16.225223795506125 2.3725919997792695 1 0 0
15712 2 1 0 10.512651022360059 16.803072995365213 2.0661567820284525 1 0 0
15713 2 1 0 10.207712850524667 15.435778869150385 2.7561668373893893 1 0 0
19578 2 4 0 10.75550933951221 13.870706604399462 3.584783671062945 1 0 1
19579 2 1 0 11.2372985068284 13.83123349158718 4.432621610382438 1 0 1
19580 2 1 0 9.876536913152389 13.51677039150571 3.7493794153407545 1 0 1
3184 2 1 0 16.004500166532143 13.571497031933587 1.646627197804316 0 0 1
16227 2 4 0 14.025592031897824 17.107704198220585 2.475735386752527 1 1 0
16228 2 1 0 14.832980265098396 17.42243119171974 2.039571750776577 1 1 0
16229 2 1 0 14.13090242939595 17.26059454584997 3.431030907003994 1 1 0
20244 2 4 0 13.924990317272426 14.923566986933611 0.6579372488315037 -1 0 0
20245 2 1 0 14.874841439854068 14.985944268811213 0.4527990815085257 -1 0 0
20246 2 1 0 13.777438024868681 15.561082967403014 1.371589521297386 -1 0 0
21930 2 4 0 16.616497843386504 14.619864436315682 0.14790743199808787 1 0 0
21932 2 1 0 17.43778983715705 15.143107324778285 0.18577781814152658 1 0 0
3084 2 4 0 21.185271795953984 15.37580077264387 3.074798878300014 0 0 1
3085 2 1 0 21.447406127272654 16.088998322028857 2.4869235639390292 0 0 1
3086 2 1 0 21.59971935794358 15.560752319952464 3.9369953422216564 0 0 1
18384 2 4 0 16.08225408409157 0.39195895124246277 26.782797241303356 0 0 0
6249 2 4 0 18.580894912961327 14.565369243533151 3.3126834043619255 1 0 1
6250 2 1 0 19.532769582007237 14.774789340928844 3.2217418404247744 1 0 1
6251 2 1 0 18.444572599698954 13.71613041515484 2.869883645548929 1 0 1
13357 2 1 0 18.126855873180673 16.299186524947807 2.9860371437707416 0 0 0
22250 2 1 0 22.99410721895114 0.15420847386540712 30.359885490900055 0 1 -1
22448 2 1 0 19.80927786182501 16.394781369188454 0.06098015383831428 -1 1 0
13411 2 1 0 17.254167567889525 0.4463530578589955 29.667038344358183 1 1 1
19191 2 4 0 25.197533661064874 15.502885927647728 2.423332230399944 1 0 1
19192 2 1 0 25.008779523215722 15.020891325959205 1.6103353646211507 1 0 1
19193 2 1 0 24.82886739257322 14.972183009070573 3.153883973865125 1 0 1
4302 2 4 0 29.482400840544642 13.475644191763548 2.2844487338837847 1 0 1
4303 2 1 0 29.971877819716383 13.490054128648902 3.119501075117216 1 0 1
4304 2 1 0 30.170964083913084 13.49778341293195 1.5975676663132952 1 0 1
4462 2 1 0 27.999268633992614 15.83200633425869 0.6921477090051111 0 1 0
12260 2 1 0 26.646690851795224 17.896646090427144 2.5275735249620954 0 0 0
16317 2 4 0 30.233075643930384 16.94333888703216 3.3118729976976926 0 0 0
16319 2 1 0 29.312516089082408 16.685476454852424 3.131395378484298 0 0 0
18504 2 4 0 27.855728422241402 15.809070245225733 2.46010942868582 0 0 1
18505 2 1 0 28.29260588837454 14.958523959829696 2.6231887761620962 0 0 1
18506 2 1 0 26.895314428258487 15.641549584998995 2.588637657422011 0 0 1
18706 2 1 0 26.830899432840308 13.400237545310093 0.45807913921243193 0 1 0
2724 2 4 0 0.7378353022618147 18.364520061266628 4.45060326061656 0 0 0
2726 2 1 0 0.49062721858036806 18.65825838212709 3.569042205271446 0 0 0
3918 2 4 0 1.6408177589930355 20.05209468028778 0.5897410238212445 0 1 1
3920 2 1 0 0.8680746521598419 20.403235981363416 1.066051914593258 0 1 1
4536 2 4 0 3.5635857502692847 18.178147125228378 1.3894393006154067 1 1 1
4537 2 1 0 2.9474560281280207 18.918793433449352 1.2444611547546995 1 1 1
4538 2 1 0 4.240835472273521 18.538917090861965 1.9898534605669436 1 1 1
8170 2 1 0 0.9522614194601496 18.265409118376812 0.48786409958047033 1 0 0
5202 2 4 0 7.723042787197306 21.988952547047294 4.489544368618327 0 0 0
8109 2 4 0 5.2622577454163935 19.621080328682293 3.049227033279868 1 0 0
8110 2 1 0 6.01933499526012 19.411489717187404 3.62294874093832 1 0 0
8111 2 1 0 5.5994324729143505 20.178400362436626 2.3296368661409605 1 0 0
15636 2 4 0 7.51205338097719 19.21280394746376 4.639285791984198 0 0 1
15637 2 1 0 7.7147781927757135 20.161635974307774 4.569458004137867 0 0 1
16233 2 4 0 5.839736672774357 21.223241139869344 0.7753622324926884 1 0 0
16234 2 1 0 5.062114105485162 21.76982905238311 1.0234224393335145 1 0 0
17760 2 4 0 8.480005682996179 20.017133088490542 0.5068664719611983 1 -1 0
17761 2 1 0 7.6529111253109265 20.498298417752025 0.6497794036891289 1 -1 0
17762 2 1 0 8.232395610334182 19.07546985081038 0.4493774649458415 1 -1 0
2970 2 4 0 11.68021756929422 17.87901757310219 1.2996928899368203 0 0 -1
2971 2 1 0 11.414911268585733 18.77697016213283 1.573909505204344 0 0 -1
2972 2 1 0 12.533520264071573 17.700825615105632 1.7375693267409122 0 0 -1
9765 2 4 0 10.762694677603202 20.360704983899545 2.132320678698548 0 0 1
9766 2 1 0 11.250031377072736 21.06554471923042 1.6747683767818882 0 0 1
9767 2 1 0 9.888744807878696 20.317489005973123 1.7033716650564832 0 0 1
9997 2 1 0 13.151168385995573 21.387272890936067 0.550918183877015 0 1 0
12827 2 1 0 11.143683829478496 20.679703044682427 3.839224900658927 0 1 1
2961 2 4 0 16.256690456072985 18.098858114633998 1.0186956779229517 1 0 0
2962 2 1 0 16.552850204899208 17.966967314406883 0.10094975433322942 1 0 0
2963 2 1 0 16.973453161714858 17.80267094610594 1.6107093548353497 1 0 0
3660 2 4 0 15.294435462015395 20.213829118819884 3.7004916455159638 0 1 1
3661 2 1 0 14.832762774551103 20.329232516505165 2.8582178251147026 0 1 1
3662 2 1 0 15.21230298468658 21.069483549530286 4.134690425774692 0 1 1
7563 2 4 0 14.846203138770088 20.4795210458439 0.808710983919426 0 1 0
7564 2 1 0 15.373009074599521 19.65917116994456 0.8346898816637145 0 1 0
7565 2 1 0 15.485219477912736 21.199776684878422 0.9074143072789317 0 1 0
9115 2 1 0 17.34181776402519 20.188115540212184 2.8366116797214618 0 0 0
4347 2 4 0 20.131988747601117 21.280211311015833 0.902823164026161 0 1 1
4348 2 1 0 20.98493269716655 21.154758855213394 1.3544063765353063 0 1 1
9114 2 4 0 18.14747487946606 20.641988162904077 3.106773027730139 0 0 0
9116 2 1 0 18.832791135966993 20.496979128868016 2.4371979506785815 0 0 0
13356 2 4 0 18.02832560016463 17.273259204399167 3.0067550550610855 0 0 0
13358 2 1 0 17.602965643862923 17.453480618271712 3.8514942751529855 0 0 0
15989 2 1 0 18.174545108837023 21.72082645337635 0.2874780846976795 0 0 1
17642 2 1 0 20.544346084571316 20.604557928552232 4.605126292856422 0 1 1
22083 2 4 0 20.483222904389 18.952910780783338 3.57337523243922 0 0 1
22084 2 1 0 19.82268203221287 18.30917052427175 3.2847638531602383 0 0 1
22085 2 1 0 21.34892716711788 18.618716820264485 3.2966395077729302 0 0 1
4958 2 1 0 4.311988701698019 0.1634270677814445 27.02242040015811 0 1 0
10164 2 4 0 22.800205122132606 21.142815117674854 2.0513346667266195 0 0 1
10165 2 1 0 23.439437827940072 20.94734924159402 1.3415618754390477 0 0 1
10166 2 1 0 22.88205823867604 20.38569059285362 2.6570360246019815 0 0 1
12258 2 4 0 26.070371362550997 18.316831467191996 3.169890494004886 0 0 0
12259 2 1 0 26.29495502410794 17.90686509592077 4.029445110622839 0 0 0
18855 2 4 0 23.231391806368695 18.639777187954646 3.359730852488055 0 0 0
18856 2 1 0 24.049022568871727 18.30170920448191 2.9705400475307697 0 0 0
18857 2 1 0 23.36725866169622 18.486565113454205 4.310279730800056 0 0 0
15079 2 1 0 27.08878349471071 19.17954568462462 0.048254621966821364 0 -1 1
13410 2 4 0 18.119879814243873 0.01582765923612328 29.721229953400282 1 1 1
17142 2 4 0 30.13016558282448 19.475974835840425 1.8067667540584866 -1 0 1
17143 2 1 0 30.02983667242272 18.621900985608672 2.244771570032319 -1 0 1
22218 2 4 0 26.32839063557463 20.920842046988184 3.8490618443199933 0 0 1
22219 2 1 0 26.088697847190176 20.03202972054693 3.524867531710711 0 0 1
22713 2 4 0 27.614986946449477 20.57434763931842 1.1460916992006323 0 -1 1
22714 2 1 0 28.52620854241029 20.384600718859534 1.4330491313453937 0 -1 1
22715 2 1 0 27.14972077127923 20.815452164273694 1.9565948910448654 0 -1 1
11499 2 4 0 1.7503021892296076 23.878650248001588 2.744659249438641 1 0 1
11500 2 1 0 2.0274918449933024 23.603815680956075 3.636170112030475 1 0 1
11501 2 1 0 0.781353342858179 23.981297402788446 2.7297057333520844 1 0 1
14754 2 4 0 3.653881594398859 22.794724363124907 0.9651752614347534 0 0 0
14755 2 1 0 2.9664743408012124 23.08713256583823 1.5868264968240335 0 0 0
14756 2 1 0 4.092448864407012 23.595469927374175 0.6404658907174006 0 0 0
17289 2 4 0 3.032461032269744 26.332022202272533 2.8080215023429353 0 0 0
17291 2 1 0 2.6414377761390537 25.43545601404325 2.8458381951659857 0 0 0
5203 2 1 0 8.495513131130021 22.558750260164523 4.340056654762564 0 0 0
5204 2 1 0 6.965700368101965 22.48953565261651 4.111895652061453 0 0 0
7998 2 4 0 8.21617950239242 23.380021074882265 1.2908354334891037 0 1 0
8000 2 1 0 7.427404198114207 22.82817352455324 1.36157544547756 0 1 0
10458 2 4 0 7.644525003358455 26.01060513756016 2.1162695250660404 1 0 1
10459 2 1 0 7.760605474092065 25.104927145970066 1.7698274274166927 1 0 1
13365 2 4 0 5.708089054246186 23.4917204884924 3.5520953077133215 0 0 0
13366 2 1 0 5.82040166253315 24.416113113370415 3.8085104111242507 0 0 0
13367 2 1 0 4.820961962700067 23.289786043940264 3.8927073473201648 0 0 0
19722 2 4 0 5.623093002105168 26.375291657950992 3.980727266190598 0 0 0
19724 2 1 0 6.331775298686702 26.405759003670585 3.317372645678559 0 0 0
4057 2 1 0 11.038864504016868 25.88758084611067 1.1711631610075328 -1 1 1
7986 2 4 0 9.976762492651211 23.30362207820051 3.580977773389557 1 0 0
7987 2 1 0 10.527680734062061 24.087234683327107 3.399829542545456 1 0 0
7988 2 1 0 10.582681559807321 22.609846321502527 3.8686927827672437 1 0 0
7999 2 1 0 8.794086643866844 23.133958149609622 2.030853612332402 0 1 0
9996 2 4 0 12.437294717899206 22.04066834135233 0.5167201875114771 0 1 0
15489 2 4 0 11.31889341815585 25.63755427557929 3.0105581366102236 1 0 1
15490 2 1 0 10.745635713946617 26.254720648789984 3.4974478637803585 1 0 1
15491 2 1 0 12.249740424065854 25.85734376151418 3.218766178286364 1 0 1
5277 2 4 0 17.676240879109816 23.414573609591216 3.252042868721222 0 1 0
6990 2 4 0 15.04193049681392 22.9927898859752 2.292068272911238 0 0 0
6991 2 1 0 15.922508438786975 23.36949733283441 2.435552363198625 0 0 0
6992 2 1 0 14.56337468595322 23.640865486687566 1.76856375283566 0 0 0
11087 2 1 0 14.074745263739318 23.03165299025704 3.9983788907680995 0 1 0
16146 2 4 0 14.014240758872345 26.21845910231593 3.244918594768882 0 0 1
16147 2 1 0 14.596913230913618 25.62825038270532 3.7678883362507767 0 0 1
16148 2 1 0 14.379576556615486 26.230285048261187 2.343369706038066 0 0 1
5278 2 1 0 18.548569256595496 23.777852254721658 3.479060791776604 0 1 0
6474 2 4 0 21.54141567335949 24.05804117855594 0.48564121549881434 0 1 0
6475 2 1 0 21.233282807549582 23.15837475970476 0.3198121947617625 0 1 0
2723 2 1 0 19.056023229055345 0.008033487745258583 12.621305782342096 1 1 0
10051 2 1 0 19.842296989292535 25.08369788096265 0.26937952574797047 1 0 0
22917 2 4 0 30.768364205412205 2.670507368041252 5.790263587739367 0 1 1
10722 2 4 0 20.14465715587609 24.094343743309622 4.469788057838003 0 0 0
10723 2 1 0 20.905907425965395 24.616094325699986 4.157833207703517 0 0 0
3543 2 4 0 22.4543287669042 25.604191689595613 3.7422144834864 0 0 1
3545 2 1 0 23.050543986458297 24.912871104966996 3.4065706959773894 0 0 1
6476 2 1 0 22.178619687031134 23.983426321036717 1.2046642920777544 0 1 0
8433 2 4 0 23.95368401999387 23.663031301725884 2.321841777727115 0 0 0
8434 2 1 0 23.621192367864463 22.758900909423353 2.478266593751548 0 0 0
8435 2 1 0 24.78741420791477 23.711019814064453 2.8172758002248606 0 0 0
10840 2 1 0 24.56533827666176 23.99028114728625 0.6691904995300512 0 0 0
2541 2 4 0 29.519480665619554 25.658403046951296 4.594874413578551 0 0 0
1951 1 1 0 27.950956473796055 29.245357508705926 27.21702211097643 0 0 0
8784 2 4 0 29.255946726390672 23.526065072771427 1.4736380684841894 0 0 0
8785 2 1 0 28.37858676364904 23.46860091479802 1.8856397209375515 0 0 0
8786 2 1 0 29.878672736848678 23.470131401355296 2.216439053444119 0 0 0
22654 2 1 0 30.443435636187868 24.29420763863602 4.059082250777876 -1 0 0
23130 2 4 0 26.841578779524013 23.52403749855893 3.0035158019259316 0 0 0
23131 2 1 0 27.082494265589123 24.02117634998125 3.7890989948891742 0 0 0
23132 2 1 0 26.668430527167377 22.622230921505487 3.323296342009887 0 0 0
4978 2 1 0 2.5093519414903662 27.58995087293706 4.042312879926362 1 0 1
17290 2 1 0 3.9586066206525587 26.25993032501528 3.0982072068687385 0 0 0
18606 2 4 0 1.2918512219380063 30.491247858299516 1.637317986657194 0 0 0
18607 2 1 0 1.1877484436540422 30.472450139503866 2.6037491567785147 0 0 0
21567 2 4 0 1.6152699563619073 26.894820021451064 0.5545806860553381 1 -1 0
21568 2 1 0 1.0153025746940711 27.637376908023203 0.6590027483436656 1 -1 0
21569 2 1 0 2.1813554382531146 26.86247658219051 1.3505822259870672 1 -1 0
2918 2 1 0 5.577236670274378 29.512095633506995 4.0637195611943335 0 0 1
10460 2 1 0 7.340435914703562 26.559608917087363 1.3796135606746784 1 0 1
11996 2 1 0 8.385588956928208 29.73367712990838 2.562157091259428 0 -1 1
15459 2 4 0 6.6522542150030715 30.45158947537558 2.860124107809169 0 0 1
15460 2 1 0 6.208527862415257 30.60526537641832 2.007202015461703 0 0 1
19723 2 1 0 5.5815916210989975 27.23939523022967 4.422554896207226 0 0 0
21652 2 1 0 8.631312458917048 26.587161799158896 3.480343055811769 0 0 1
4548 2 4 0 12.094343662052506 30.162934424886114 2.5494506544760136 0 0 1
4549 2 1 0 11.22300371831012 29.89523134417119 2.8620777914513877 0 0 1
4550 2 1 0 11.91981367913251 30.37554738009293 1.6162793874597683 0 0 1
3619 2 1 0 19.05634411676457 30.797337688208618 11.537006362038078 1 0 0
3618 2 4 0 18.114804763061056 30.781024783520603 11.724602912005272 1 0 0
11994 2 4 0 9.243586566263497 29.281067881979027 2.488626594223788 0 -1 1
11995 2 1 0 9.285674880679652 28.947447039746006 1.5745621873116802 0 -1 1
21651 2 4 0 9.181586293571025 27.06680689691115 4.129956661190393 0 0 1
21653 2 1 0 9.268380914841936 27.930812852316993 3.682913436451353 0 0 1
8850 2 4 0 16.48161785760583 29.27899067725612 1.9904556613041577 0 0 0
8851 2 1 0 17.116721759757773 28.542362794132128 1.9586430500336882 0 0 0
8852 2 1 0 16.034553017486587 29.225393317675618 1.136856931695209 0 0 0
19981 2 1 0 17.26838167895073 30.657378078866106 2.8591462310436024 0 0 1
21951 2 4 0 15.207426660395363 28.560407803964353 4.386815588240234 0 1 0
21952 2 1 0 15.502678836761588 28.9464253300073 3.544150334081191 0 1 0
21953 2 1 0 14.638132894220078 27.82401397793432 4.10917048289218 0 1 0
22587 2 4 0 17.669078028627812 26.71227890645826 2.0888105651401716 0 0 1
22588 2 1 0 16.852460070496242 26.227510441961176 1.921226532772952 0 0 1