LAMMPS data file via write_data, version 29 Aug 2024, timestep = 1000, units = metal

23558 atoms
5 atom types

0 61.644723157577054 xlo xhi
0 61.644723157577054 ylo yhi
0 61.644723157577054 zlo zhi

Masses

1 1.0078
2 12.011
3 14.0067
4 15.999
5 32.065

Atoms # full/kk

6126 2 4 0 1.1517834213823053 1.3010712128735429 0.8669050811869614 1 0 0
6128 2 1 0 0.8825411764065034 0.6575038476175831 1.5433303183442106 1 0 0
9775 2 1 0 3.9071350348772236 2.2770976881424976 3.825308867269683 1 1 1
9907 2 1 0 3.0360099500171054 0.7367011384850206 1.2627334136950457 1 1 1
6119 2 1 0 29.485839484357218 5.902362296367098 2.895914717815829 0 0 0
5297 2 1 0 8.144718396739611 4.704601215072356 2.6193619272977866 0 0 0
20401 2 1 0 1.0157550240673312 24.328738873688415 8.903554681710204 0 0 0
18814 2 1 0 30.54455494478077 26.361812280187618 1.3132038696344752 0 0 1
15136 2 1 0 30.786152690645057 0.32863835486474274 14.084936023707334 0 1 1
3528 2 4 0 5.376710291732958 2.3885603326238916 2.012726436873287 1 1 0
3529 2 1 0 5.854570765917609 2.4189584827428785 2.834230020477678 1 1 0
3530 2 1 0 5.901045091135386 2.4311370430601116 1.1900724397980031 1 1 0
6129 2 4 0 7.704055510827237 1.08989189680647 3.174001772141452 0 1 1
13310 2 1 0 7.553774022147737 2.873334442377056 4.278892763287096 -1 0 0
12697 2 1 0 29.322578683221828 2.8097678385690066 0.2548145411368826 -1 -1 1
13308 2 4 0 6.925700394017736 3.6174284074890863 4.248398515502611 -1 0 0
7686 2 4 0 10.268464685346528 2.1848561257873054 2.1581255744940426 0 1 1
7687 2 1 0 9.832412947028281 3.0297253286400867 1.8727886651502663 0 1 1
7688 2 1 0 10.594665707004735 2.395013469934516 3.031881280595091 0 1 1
13268 2 1 0 12.932110570640333 3.501578868130742 1.8531630768326974 0 0 0
3447 2 4 0 8.015123279888694 29.006910014947543 0.5593344015572885 0 0 1
15735 2 4 0 28.15710548971141 24.902225142366643 0.5867703584997777 -1 0 1
6131 2 1 0 8.522267646495958 1.2483871850524368 2.6966102527126514 0 1 1
21983 2 1 0 12.935356097227565 1.0756158501991944 2.435927182224942 -1 1 1
3449 2 1 0 7.419349575709874 28.30377618059118 0.32145626357875395 0 0 1
15737 2 1 0 28.590920955416617 24.797084336328368 1.4090788550114943 -1 0 1
17958 2 4 0 16.934306516377575 4.079138062327946 2.299797129892569 0 1 0
7252 2 1 0 10.833517295509456 2.0174713049793893 0.5113953094540641 0 0 1
13266 2 4 0 13.533210801125842 2.7791014021867717 1.9678242222118623 0 0 0
13267 2 1 0 14.135231862384432 2.8475375447962463 2.7486647268856665 0 0 0
15538 2 1 0 16.141434631549 1.2465758169702403 1.068515103198821 0 0 1
17959 2 1 0 16.5040348974614 3.361470268594338 2.801352907677962 0 1 0
21981 2 4 0 12.561501216413355 0.22051001851446517 2.7011082902410437 -1 1 1
2900 2 1 0 0.26809893129476464 8.938638119903242 16.255475059566386 0 0 0
7100 2 1 0 19.904623002647828 1.8123332682244588 1.5880710564467975 0 0 0
14354 2 1 0 30.56611920318179 20.958894850849006 5.954192586686822 1 0 0
11212 2 1 0 0.022344750776636994 2.0421443802641597 21.423598334148455 1 0 0
4637 2 1 0 0.337074573891435 16.785665618813738 3.516763093054568 0 1 0
13525 2 1 0 22.003212809082957 2.6287285381163654 1.5208912956922511 0 0 0
17886 2 4 0 30.448213641435643 3.769938525783636 30.681840244017213 0 0 0
13524 2 4 0 22.74046972483448 2.9430689874217344 2.0077826809018995 0 0 0
17073 2 4 0 17.414260466182427 0.1471284050243212 3.8213325756220127 0 0 1
17074 2 1 0 16.999905785197964 0.3597064511315955 2.970298505338475 0 0 1
19587 2 4 0 12.80525121819764 25.53711424440363 0.47998629072267335 0 0 1
17960 2 1 0 17.868083647930902 3.95815207275011 2.409367178810239 0 1 0
23270 2 1 0 20.096537976156593 3.9930727717559775 3.362707381960787 0 0 0
7099 2 1 0 19.76920644692826 3.3460167127201 1.3129835082718317 0 0 0
2929 2 1 0 0.23082168207680762 22.036918451694177 27.804334930692608 1 0 0
15736 2 1 0 27.86423438539584 23.973358211302568 0.3472607343966487 -1 0 1
13526 2 1 0 23.448468104103508 3.2457924279114705 1.4149389760640232 0 0 0
15902 2 1 0 25.12981156874274 2.858970510694489 3.971398296543859 1 0 1
16427 2 1 0 25.196071346230042 4.618159909993783 2.7452663697048365 0 0 1
4710 2 4 0 24.845973996517607 0.8848857935567968 3.699533845734135 0 1 1
4712 2 1 0 25.599987069699832 0.8206720504879552 3.1018069563532302 0 1 1
7203 2 4 0 26.365704329449482 2.7128405007656595 0.8173844531644864 0 0 0
3276 2 4 0 20.882520502168944 30.682748693787392 15.82416124230601 0 0 1
10841 2 1 0 24.49720583493362 24.909687087584228 0.42987144412212436 0 0 0
9543 2 4 0 29.91818705911964 2.256360483967988 1.8324413155320216 0 1 0
20239 2 1 0 30.59679334928749 30.542016000570904 18.411636918455613 0 0 0
9545 2 1 0 30.423301611468748 2.862746953617714 2.3609304155842814 0 1 0
6791 2 1 0 15.400470803160472 0.5530759687907202 23.342504078935903 0 1 -1
4709 2 1 0 0.11985554224293134 7.853021384181433 28.90377001291916 1 -1 0
21422 2 1 0 0.5964596531721912 15.06690444721989 15.198654139873017 1 0 0
12361 2 1 0 3.1518452138034787 7.924184912552232 3.325292899254794 0 0 1
12362 2 1 0 3.2207767898220485 8.321361926887064 1.8610460171476557 0 0 1
12906 2 4 0 0.17680890502271865 6.832939853620833 1.0528125117813676 0 2 0
12907 2 1 0 0.9507016470211938 6.957239646454321 0.5083290157845349 0 2 0
12908 2 1 0 0.28763618175716915 7.222095478751151 1.9177483650539722 0 2 0
13720 2 1 0 3.109821559273776 5.523499579557636 3.17010727480263 0 1 1
7226 2 1 0 4.521113303077953 6.538731517401387 0.9564554343326415 0 0 0
12360 2 4 0 3.009583018675453 7.543838189891203 2.4318215502426592 0 0 1
20344 2 1 0 5.225561505896036 9.31213900263293 3.3834900306192477 1 0 1
11948 2 1 0 11.537945709973604 30.345974037873777 0.4404818600096054 0 0 1
5295 2 4 0 8.773400213939732 4.7856768692866405 1.8956038911471034 0 0 0
5296 2 1 0 8.254468682573354 4.989549369344849 1.116172273072083 0 0 0
7224 2 4 0 4.9286816776375755 5.659955201502817 0.9188267706729957 0 0 0
7225 2 1 0 5.428764410548026 5.732629759120837 1.7590761537362076 0 0 0
8016 2 4 0 5.8636312581841485 8.564559731251467 1.8046629091286304 1 0 1
8017 2 1 0 6.7411299155068205 8.929419307039975 1.9088955220107102 1 0 1
8018 2 1 0 5.679970322837912 8.642620895070559 0.84532961558729 1 0 1
7674 2 4 0 23.809730678552956 20.053449923890753 0.9299613818254363 0 0 1
2814 2 4 0 11.715017952016652 5.177701482440823 2.0711190630704013 0 0 0
2815 2 1 0 10.72667059859605 5.105530658916185 2.0594000537974586 0 0 0
2816 2 1 0 11.924852205511451 5.871064960786866 1.4162637076072109 0 0 0
9677 2 1 0 0.6210531498192023 15.756592152746856 8.886890634480059 1 0 0
15677 2 1 0 25.4477378756086 1.232306723028178 0.04029098039796804 0 0 1
8091 2 4 0 8.211514709096416 9.537889918926343 1.3379023405656707 0 0 0
16724 2 1 0 0.3473908192688665 17.018902549171777 26.073326604704054 0 0 0
21500 2 1 0 12.589985734445117 6.209657652484429 3.477652226516235 -1 1 0
1764 1 2 0 24.7171648379039 30.419321074617923 29.3290309010759 0 0 0
3069 2 4 0 18.385842386825505 7.201116659712169 1.7197803369708704 1 1 1
4200 2 4 0 15.574108573717904 6.120233993595675 3.5289385609691766 0 0 0
16335 2 4 0 13.774154426353897 7.185635204064577 1.3552240675948426 0 0 1
16336 2 1 0 14.292738574512358 7.057311579666715 2.138954209706721 0 0 1
16337 2 1 0 13.527557303454167 8.126569211463456 1.2661808197256803 0 0 1
17924 2 1 0 17.413893703307025 6.43382066670672 0.26154959921977045 1 0 1
4202 2 1 0 16.061941256504998 5.298087868278233 3.2543848821472943 0 0 0
3070 2 1 0 18.559907285039593 6.52435224587947 2.3776768127351513 1 1 1
3071 2 1 0 18.84380374501774 7.966363185331549 1.7227350327139312 1 1 1
12839 2 1 0 22.395693921461156 7.119312244973784 3.8621762863856537 0 1 0
13251 2 4 0 22.081801372137786 6.70790219461898 2.204999158813997 1 0 1
13252 2 1 0 21.798154066820487 7.36390759017222 1.536856542454605 1 0 1
13253 2 1 0 22.860841853442473 6.327333382237235 1.7305307208431395 1 0 1
18060 2 4 0 19.858485706931255 8.526445174442419 4.151079575684109 0 1 0
18062 2 1 0 20.571500667236403 7.956173103203288 4.427183987000529 0 1 0
23269 2 1 0 20.76872364197217 5.101668052266467 2.640140552208726 0 0 0
23268 2 4 0 19.907998770073558 4.867810166434622 2.900998602625855 0 0 0
14684 2 1 0 23.49810601059985 8.838706154190493 3.9820661736714795 0 0 -1
18222 2 4 0 25.536764176130806 7.648181496261595 2.0566085415317445 1 -1 1
18223 2 1 0 25.061635094368164 8.341781208418187 2.5401913317695466 1 -1 1
18224 2 1 0 26.488277321986807 7.868902446316426 2.264735185831848 1 -1 1
16426 2 1 0 25.244750909673932 5.900957437082033 1.696473901009462 0 0 1
19020 2 4 0 30.811938063159594 9.391284997074935 29.93167665888474 0 0 0
21568 2 1 0 0.039256477229734014 28.358344659985026 0.3168804016211131 1 -1 0
12837 2 4 0 22.46465091758623 7.332433817422499 4.805165114003248 0 1 0
12838 2 1 0 22.528384317809472 6.452553895859007 5.244221392707936 0 1 0
16425 2 4 0 25.2892783164705 4.9211109120174585 1.836492102331497 0 0 1
4058 2 1 0 9.836857681425403 27.880622802414532 0.8422578461889173 -1 1 1
19434 2 4 0 27.67370859786493 5.708901029510757 0.37945388224008986 1 1 0
19435 2 1 0 26.88228601131906 5.460282056059752 0.8387581636241982 1 1 0
19436 2 1 0 28.45237570610951 5.676102762094297 0.9474065586061092 1 1 0
13714 2 1 0 3.4368769333208466 11.141708947850569 1.1708102916038423 0 0 0
12983 2 1 0 30.805246970300754 20.807041509980394 21.91671396352605 0 0 0
23404 2 1 0 29.967839836442945 13.136062740854653 16.244968666497716 0 -1 0
22446 2 4 0 20.034343419344957 14.315707423400266 1.0120970251945896 -1 1 0
15616 2 1 0 0.05835579786057684 4.328405469904386 5.628419964755586 1 1 0
9695 2 1 0 0.7573362326465569 12.861595609534401 2.443271482296604 -1 0 1
13713 2 4 0 3.1266390986118853 10.304011147590746 0.7812408834331337 0 0 0
14587 2 1 0 2.1734860529668345 12.06786425433283 4.743986550570798 0 0 0
14588 2 1 0 0.9149028182032444 11.72969507392872 4.06905680704333 0 0 0
10303 2 1 0 7.707153846675875 11.087561369149004 0.703387014257196 1 0 0
10343 2 1 0 6.855877344317793 13.562890681192325 3.6568148477882083 0 0 0
11797 2 1 0 3.975199876950751 10.950966139821668 3.7457544598449157 0 0 0
22314 2 4 0 7.424454736128653 12.117551830295637 5.351548577062405 0 0 0
22316 2 1 0 6.744196300537126 11.474612653602385 5.5622750674985335 0 0 0
23244 2 4 0 4.748925613814191 12.660310843194408 1.17808922329915 1 1 0
23246 2 1 0 5.689352498422956 12.417002727323743 0.9585101171103204 1 1 0
11796 2 4 0 3.7223977926155256 11.897020935597402 3.7244519747778635 0 0 0
11798 2 1 0 4.202015069251154 12.340886978622109 3.0551912189950503 0 0 0
20343 2 4 0 4.63751863061121 9.371964265115988 4.164059484448639 1 0 1
19333 2 1 0 0.08543093508184844 5.437292946465898 28.38947238725295 0 1 0
15098 2 1 0 21.278159556599032 1.5251831289386595 17.31432600485439 0 0 1
17921 2 1 0 12.855510557540226 10.484786828917587 1.0739642956079762 0 0 1
18429 2 4 0 10.360217176159944 10.671150611613577 2.680928346612359 1 1 0
18430 2 1 0 10.181229731518233 11.546364839447973 2.374740003498043 1 1 0
22315 2 1 0 8.181596145139675 11.890508923040777 5.920712546458709 0 0 0
8092 2 1 0 8.901432604872086 9.668150024711395 1.9944503532751274 0 0 0
9150 2 4 0 12.576907085326722 12.646251129222664 1.112340260289081 1 1 0
17919 2 4 0 12.368810318908414 9.634017189495067 1.2031151979075063 0 0 1
17920 2 1 0 11.608780633786608 9.76949629065858 1.8570875846516763 0 0 1
9151 2 1 0 11.893808190285366 13.255942431014102 1.40189064137525 1 1 0
3183 2 4 0 15.198778756253141 11.584026390986171 1.2037988690286172 0 0 1
3185 2 1 0 15.08450069548156 11.925109125956073 2.1129963124537343 0 0 1
11415 2 4 0 11.465767794407368 30.108552892025475 26.66822026706481 0 0 0
14274 2 4 0 15.951491016900919 8.974967694687003 2.502978853638676 0 0 0
14275 2 1 0 16.20441869174142 8.226890823074791 2.015477582446778 0 0 0
14276 2 1 0 15.500638941767358 9.591964594114826 1.961044211397906 0 0 0
22710 2 4 0 14.379744180161213 12.004656037199933 3.6714015471690318 0 1 0
22712 2 1 0 13.629299921774347 12.588886023236636 3.7257594469413453 0 1 0
22021 2 1 0 17.035654517553127 10.806995803241824 3.2135825211048914 0 0 1
22022 2 1 0 18.521811005170786 11.245918591427996 2.966270741836859 0 0 1
22555 2 1 0 18.24601449788869 10.477436704227703 1.1837804356598698 0 0 0
23169 2 4 0 22.61518719158624 11.004278552528696 1.7496419759719437 1 0 0
23171 2 1 0 21.896514037105757 11.03841507149823 2.5069843252329953 1 0 0
9141 2 4 0 20.38357219223745 10.959152850811025 3.3921274137443436 0 0 1
22020 2 4 0 17.597071509836443 11.535882793965637 2.789727770081649 0 0 1
9142 2 1 0 20.331356776181256 10.119778564445243 3.8256418241330135 0 0 1
23170 2 1 0 22.291769863487893 10.28090272265585 1.1370561535104198 1 0 0
11466 2 4 0 25.070834357629792 12.460333386919816 2.0350224461826585 0 0 0
11467 2 1 0 25.935926462056607 12.240868258158613 1.733665374914817 0 0 0
11468 2 1 0 24.467900267460493 11.807648785341726 1.6754046859714355 0 0 0
11782 2 1 0 22.60047094977828 12.67068273506163 0.3407628053195125 0 1 1
11783 2 1 0 23.97324788792455 13.128593001912748 0.3940413369132551 0 1 1
14682 2 4 0 24.129817869421288 9.277480898436252 3.456398503471855 0 0 -1
14683 2 1 0 23.66753796030037 9.825803047130679 2.843564364031801 0 0 -1
14618 2 1 0 18.22117363481105 0.04104208725278558 18.19653400707752 0 1 0
18705 2 4 0 27.524780990754873 12.135988798745052 0.7239215966371444 0 1 0
18707 2 1 0 28.343181427068544 12.484514747445342 1.1192404151783553 0 1 0
21525 2 4 0 28.33451832534413 11.227469958441116 4.031960574789809 0 1 1
21527 2 1 0 29.19157028400705 10.772661437266942 4.107847221359639 0 1 1
23265 2 4 0 27.969881756472596 9.52477230419591 1.5855906531975483 0 0 1
23266 2 1 0 27.544575336194054 10.265955441166671 1.0654022008622455 0 0 1
23267 2 1 0 28.250531488453156 10.020795978409467 2.373831343129116 0 0 1
22447 2 1 0 20.227185473279043 14.451095972541943 0.08152874057911985 -1 1 0
3390 2 4 0 3.189995136967846 16.223035812004163 2.659468523540842 1 1 0
3391 2 1 0 3.187875762222758 16.121416541864317 3.6097286144185072 1 1 0
3392 2 1 0 2.939264746642975 17.147719179819223 2.3439238385708543 1 1 0
9908 2 1 0 4.4750436829644675 1.0619344485177147 1.5410147138651595 1 1 1
11946 2 4 0 12.140004694155538 29.598364939709295 0.6547512897425358 0 0 1
9483 2 4 0 1.641615113696314 14.22637064034806 1.4922575732360441 1 1 0
4711 2 1 0 24.124038327423666 1.2510121703568329 3.220076860508146 0 1 1
9484 2 1 0 2.252385752244771 14.82745612876342 1.9241556419606165 1 1 0
11111 2 1 0 15.288075335080096 1.4700632531347968 30.34071925892239 0 1 1
15537 2 4 0 16.328107168151927 0.42368271263648577 1.568566799677031 0 0 1
23383 2 1 0 9.30260531669666 15.190796702254127 0.5212066247438819 0 1 1
10341 2 4 0 7.311200051360484 14.381623647739248 3.2489834226365684 0 0 0
10342 2 1 0 7.325942534107392 15.02721959090143 4.035581169476339 0 0 0
14571 2 4 0 7.636164983286108 16.73854600926623 4.423911974399584 0 0 1
14572 2 1 0 6.731450644975664 17.030887794890287 4.183480304877891 0 0 1
14573 2 1 0 8.243183354001523 17.38211536280863 3.9981458589205308 0 0 1
20022 2 4 0 7.218811079958686 18.139387767010106 0.6891522572647497 0 1 1
20023 2 1 0 6.508605824109322 17.64942846566505 1.1856407632447004 0 1 1
20024 2 1 0 8.050705847443265 17.75624803940373 0.8328290163973316 0 1 1
21717 2 4 0 5.625805833846571 16.26709117815418 1.708670006324286 0 0 1
21718 2 1 0 4.717406322264466 16.271837809437542 2.0130881264135474 0 0 1
21719 2 1 0 6.081340872277974 15.557805894053043 2.2334010468032317 0 0 1
15713 2 1 0 10.014614524962164 15.851906767681086 2.448133656817802 1 0 0
19578 2 4 0 10.179586537658189 13.92773540319606 2.660655863561 1 0 1
19580 2 1 0 9.27129456299446 13.747705334101815 3.012276482662621 1 0 1
9152 2 1 0 13.349671115332418 13.265691467118968 0.8771667819058544 1 1 0
15711 2 4 0 9.707797299475143 16.620145631884583 1.9844738861993545 1 0 0
15712 2 1 0 10.491237044599993 17.13926457666748 1.7754416153070511 1 0 0
3184 2 1 0 16.09388815698385 11.861892364103582 0.9577714549157169 0 0 1
16227 2 4 0 14.300539555969609 16.807150862966576 2.294793494631765 1 1 0
16228 2 1 0 15.02540444977062 17.43309644164907 2.1565688219194894 1 1 0
16229 2 1 0 14.145229105893149 17.030598179339552 3.25971320702869 1 1 0
20244 2 4 0 14.477679178516603 14.491491073127557 0.7782352292140817 -1 0 0
20245 2 1 0 15.39238877105962 14.216842078469261 0.7209530116183278 -1 0 0
20246 2 1 0 14.334272316522528 15.276736487677567 1.3879991716154327 -1 0 0
21930 2 4 0 17.064902755600652 14.011926469304624 0.46172603550729074 1 0 0
21932 2 1 0 17.94249203023285 14.253477747317648 0.9043125557044069 1 0 0
13358 2 1 0 17.467351784654912 17.18182889131177 4.806404459009362 0 0 0
6249 2 4 0 18.036755398437908 14.004471874764166 4.0255770002122055 1 0 1
6250 2 1 0 18.94110035862337 13.725542072151866 4.083610646982322 1 0 1
6251 2 1 0 17.644954604677196 13.39634386500892 3.3711384403583833 1 0 1
13357 2 1 0 17.757694924263124 15.843856429709533 4.085859156672753 0 0 0
22448 2 1 0 19.808279610352432 15.200774777289556 1.3610821552876393 -1 1 0
3084 2 4 0 20.87561886679042 13.432191543468107 4.480712335652869 0 0 1
3085 2 1 0 21.59891186470776 13.561136065233747 3.8562422955922337 0 0 1
3086 2 1 0 21.293795528879688 13.87872481618597 5.240567906652194 0 0 1
13356 2 4 0 17.478523925256322 16.782565202523276 3.914207684689353 0 0 0
12319 2 1 0 25.001839175827907 13.76123186576887 3.6026241929681557 1 1 1
19191 2 4 0 22.70105859319688 15.000908079512117 2.229098722510706 1 0 1
19192 2 1 0 22.174611051163843 15.761012690727885 2.503879390548133 1 0 1
19193 2 1 0 22.538171484263184 14.888926697386324 1.2800627229278467 1 0 1
6281 2 1 0 1.9320108987791167 30.439211465681968 0.16479021628992202 1 0 0
14664 2 4 0 0.6559397641840856 9.039085606241335 27.568122051919797 0 1 0
16319 2 1 0 30.59999069650092 16.566618140576416 3.057658748054393 0 0 0
18504 2 4 0 28.9851865835269 15.372752706938396 2.0392408542370584 0 0 1
18505 2 1 0 29.404691260773824 14.616003194261612 1.5683556762166235 0 0 1
18506 2 1 0 28.60481180154417 14.911670055002837 2.841764595715775 0 0 1
18386 2 1 0 14.626932605099125 1.5357507447595096 28.23259535886219 0 0 0
4302 2 4 0 30.061423074472412 12.549559722485522 2.0976715956940546 1 0 1
4303 2 1 0 29.87915389985416 12.499296332025121 3.0503474218067574 1 0 1
4349 2 1 0 20.890027175628266 21.293030522650135 0.0908796946372906 0 1 1
4462 2 1 0 25.486957254010402 15.837795930792728 1.0233841433850752 0 1 0
20727 2 4 0 5.946836865100231 27.25977502888505 0.11505064365540757 0 0 0
3918 2 4 0 1.8370602810298482 20.60392441911255 0.7997145231659152 0 1 1
3920 2 1 0 1.6665458476227106 20.630368524210862 1.735302530795001 0 1 1
4536 2 4 0 3.5920555763812128 18.353141740263595 1.023889071179483 1 1 1
4537 2 1 0 3.047590437067906 19.14467973308296 0.8515438008725019 1 1 1
4538 2 1 0 4.2443921397530175 18.582579918660883 1.7537486725235119 1 1 1
8170 2 1 0 0.6548093840976856 18.777333493708316 0.9753484964921865 1 0 0
4121 2 1 0 4.2976782068635915 20.973629369941076 3.514441251800768 0 0 0
8109 2 4 0 5.373570614651419 19.899184014765837 2.7185242989525125 1 0 0
8110 2 1 0 6.141563162554088 19.796999640963882 3.2832687446536957 1 0 0
8111 2 1 0 5.580468458819773 20.58519487126816 2.0756526476885586 1 0 0
16233 2 4 0 5.389387841091399 21.807451058038094 0.8156433199663319 1 0 0
16234 2 1 0 4.87055182651674 22.592391510848053 0.8928605654057625 1 0 0
17760 2 4 0 8.295928317948732 20.90626297807875 0.7371383722064072 1 -1 0
17761 2 1 0 7.870808638750379 21.69359104775189 1.1404737594619956 1 -1 0
17762 2 1 0 7.625980995502511 20.214068968536353 0.6377102873768185 1 -1 0
12827 2 1 0 10.958432852000735 21.067045011729697 4.3314456125442256 0 1 1
2970 2 4 0 12.01345403735266 18.065861139563566 1.232383213637716 0 0 -1
2971 2 1 0 11.796287877862582 18.915100130286007 1.6467712117844666 0 0 -1
2972 2 1 0 12.904254003782997 17.841908387950223 1.4631867343705782 0 0 -1
9765 2 4 0 11.009366316036509 20.7333010297825 2.1391393050238983 0 0 1
9766 2 1 0 11.519815363766432 21.188323409535084 1.444937632764129 0 0 1
9767 2 1 0 10.110698641635082 20.709093617509808 1.750326633752561 0 0 1
4707 2 4 0 0.19900948480069408 7.109751023732912 29.586240358323817 1 -1 0
2961 2 4 0 16.42270420210864 18.344759686054044 1.9446448699473573 1 0 0
2962 2 1 0 16.98081264445076 18.202077849039945 1.1816756989692851 1 0 0
2963 2 1 0 16.917092896025725 18.043422234213573 2.6806143926994466 1 0 0
3660 2 4 0 15.456562266423635 20.675416315572292 3.689419412137424 0 1 1
3661 2 1 0 15.096797471797448 20.676704403826196 2.772661745506626 0 1 1
3662 2 1 0 14.949622208629485 21.354066396376915 4.1097381087079015 0 1 1
7563 2 4 0 15.384297419693892 22.120798553606342 0.9555563622768954 0 1 0
7564 2 1 0 16.254880247650142 22.007099541721878 0.5767889285913385 0 1 0
7565 2 1 0 15.421237395827992 22.99075160982867 1.4069639188580194 0 1 0
9115 2 1 0 17.091397702053296 20.960836400785062 3.309643887113143 0 0 0
21249 2 4 0 0.582015656519287 0.394973586017898 15.753277720559646 0 0 0
15989 2 1 0 18.67787289540451 21.81369716086855 0.5623998231165969 0 0 1
22083 2 4 0 19.54896455154931 18.755222413461965 3.3806385101085232 0 0 1
22084 2 1 0 18.977714828731393 17.99248636129423 3.567687571981759 0 0 1
22085 2 1 0 20.309448900454804 18.32720645963492 2.9178879699477895 0 0 1
4347 2 4 0 20.58051913018601 21.93460706579073 0.780163408754664 0 1 1
4348 2 1 0 21.06973585831154 21.743508698765307 1.551280397057631 0 1 1
9114 2 4 0 18.03250587697245 21.20893487164546 3.4191464062975205 0 0 0
9116 2 1 0 18.62006393986921 20.572063885122695 3.065794873073184 0 0 0
5550 2 4 0 20.60363775373502 17.721082666023293 0.772472159978836 0 0 0
22218 2 4 0 25.57585109278807 19.419062554578467 2.9696645917929065 0 0 1
10164 2 4 0 22.093476050851475 20.9357056759204 2.9600438724606812 0 0 1
22219 2 1 0 25.27676673500608 18.604329455371964 2.541826724131643 0 0 1
10165 2 1 0 22.68615506479658 20.49846482672438 2.3067113254236067 0 0 1
10166 2 1 0 21.825073001122025 20.17607131618143 3.524666439544806 0 0 1
12258 2 4 0 24.861496010126 16.704828182953 2.6285613928983778 0 0 0
12259 2 1 0 25.215784667869144 16.459040028735455 3.527974529471464 0 0 0
18855 2 4 0 22.416204861766936 18.02676164711996 3.5553896722131197 0 0 0
18856 2 1 0 23.083382714147017 17.81320532615084 2.8363144561688354 0 0 0
18857 2 1 0 23.01240747147254 18.125339816103722 4.326512895928261 0 0 0
5551 2 1 0 21.387049490092988 17.830510878456852 0.13193188752061663 0 0 0
12260 2 1 0 24.279597636212593 15.962220260248968 2.4938871539824783 0 0 0
17142 2 4 0 29.306436613791103 18.361758657669075 0.6888391886617338 -1 0 1
17143 2 1 0 29.186103060200274 17.427915586384884 0.8377103748906791 -1 0 1
22713 2 4 0 27.099214660433358 20.462488326237345 0.8436578663775238 0 -1 1
22714 2 1 0 27.96570892742541 20.02838185958061 0.8666561498073745 0 -1 1
22715 2 1 0 26.641583897674757 20.29567251671695 1.6780285298211859 0 -1 1
4433 2 1 0 13.87355760605792 30.406475541792968 21.573983763722484 0 0 1
17290 2 1 0 3.3302033263197357 27.374584797693803 2.101165865923777 0 0 0
11499 2 4 0 1.727758677657021 24.314579121863336 2.6070508005938207 1 0 1
11500 2 1 0 1.7586689470860994 23.92214144656269 3.5157099243135423 1 0 1
11501 2 1 0 0.8516496781153905 24.170672076031305 2.236513780017525 1 0 1
14754 2 4 0 4.490012121262134 24.248756482735953 1.8480818301466184 0 0 0
14755 2 1 0 3.5616240688290297 24.313092077837542 1.9793273995290765 0 0 0
14756 2 1 0 4.6009004330621694 24.75622270254563 1.0642992795248483 0 0 0
17289 2 4 0 2.3915374201646467 27.13935263283469 2.0508947046795707 0 0 0
17291 2 1 0 2.386949433643444 26.183943890705134 2.2405736235861498 0 0 0
12982 2 1 0 30.483530222232105 19.321583389807614 22.21915409403952 0 0 0
5203 2 1 0 8.119929876445285 23.246821624492213 4.852237683260912 0 0 0
5204 2 1 0 6.58739924294016 23.134239243852484 4.693071668173244 0 0 0
7998 2 4 0 7.988152526255833 23.378242525831514 1.833028012403935 0 1 0
8000 2 1 0 7.1731966556878675 23.21015712634796 2.372946108839453 0 1 0
10458 2 4 0 7.323046561521522 26.406016562621776 2.6240895039735306 1 0 1
10459 2 1 0 7.690368402676027 25.569571975418846 2.2836476849146763 1 0 1
13365 2 4 0 5.230910267378341 24.39834817125128 4.382579198424507 0 0 0
13366 2 1 0 4.7191945917560885 25.110862081636956 4.746672062586798 0 0 0
13367 2 1 0 4.919991952570258 24.247142512674717 3.4464656925456416 0 0 0
19722 2 4 0 4.851504733567406 27.729107454961863 3.387546028162822 0 0 0
19724 2 1 0 5.538131699793444 27.122416485975624 3.6121161411273697 0 0 0
7999 2 1 0 8.69940289201175 23.329331284645008 2.495761475999326 0 1 0
9996 2 4 0 12.54492417577171 22.819629991707785 0.2600440163879029 0 1 0
15489 2 4 0 10.700641877973618 26.52146776190962 3.5328781635760795 1 0 1
15490 2 1 0 10.123876308086876 26.636056766052608 4.3131154055149 1 0 1
15491 2 1 0 11.580611637818874 26.906601818621702 3.66998576184308 1 0 1
4057 2 1 0 10.409279309087369 26.962783624113516 1.9144730737077809 -1 1 1
7986 2 4 0 10.1207570218584 23.85603167348716 3.8738411340660788 1 0 0
7987 2 1 0 10.438322347267237 24.755273935820895 3.796976022757765 1 0 0
7988 2 1 0 10.781658695562124 23.400048612405477 4.425796006143766 1 0 0
4056 2 4 0 10.604877769066912 27.410475908562287 1.1247502269202616 -1 1 1
22588 2 1 0 17.776959985775534 26.358992418660822 2.934594073505392 0 0 1
6990 2 4 0 15.050669866848096 24.243181039204597 2.5717839835112546 0 0 0
6991 2 1 0 15.80986322052536 24.312329286663314 3.1561524846019555 0 0 0
6992 2 1 0 14.995339848781054 25.11883929438817 2.1133440611647507 0 0 0
11087 2 1 0 13.545213254131296 23.55895493086764 4.054866880694254 0 1 0
16146 2 4 0 13.598249563629814 27.182521392779872 3.9951860985322303 0 0 1
16147 2 1 0 13.856873375641731 26.406080345794024 4.508820006442205 0 0 1
16148 2 1 0 14.20329121162614 27.189832389015866 3.1717408704587178 0 0 1
19402 2 1 0 13.970976697635301 26.75281046917805 0.9952548096392375 0 0 0
19401 2 4 0 14.699231131833292 27.19166952299463 1.4790092190107373 0 0 0
22589 2 1 0 18.55354869123824 27.498790820294065 2.251257921039938 0 0 1
13568 2 1 0 0.12516773924867927 2.9804829960923014 19.663350068080128 0 0 1
10723 2 1 0 20.223501027578823 25.354883950604947 4.423654523366118 0 0 0
5277 2 4 0 17.227542745458855 24.014042878168492 4.257339457693464 0 1 0
5278 2 1 0 18.036396219654726 24.413671436069453 4.6145267939089285 0 1 0
6474 2 4 0 20.88363321863085 24.645505139079063 0.8791888760587414 0 1 0
6475 2 1 0 20.645906867845458 23.685862540789195 0.7279684218096105 0 1 0
5279 2 1 0 17.588920116727127 23.12411467607493 4.112017523208449 0 1 0
3543 2 4 0 21.8269632864735 25.922307797744182 3.379541277865863 0 0 1
3545 2 1 0 22.362157368270434 25.109827855722926 3.1078629485729112 0 0 1
6476 2 1 0 21.02209510124553 24.756655273662748 1.8377231938195568 0 1 0
8433 2 4 0 23.10428155042875 23.5038415075741 2.9982157468378765 0 0 0
8434 2 1 0 22.483619372517676 22.767859948630882 2.968191310059222 0 0 0
8435 2 1 0 23.734886937726806 23.256323919415376 3.723064751724744 0 0 0
10840 2 1 0 23.797282338999178 23.733601384707985 1.095890790720439 0 0 0
2543 2 1 0 29.108163434302806 26.29258392091893 3.768831091335326 0 0 0
4063 2 1 0 30.379959977312993 17.004427660173945 18.136162192928026 1 0 0
23130 2 4 0 27.81911101106182 22.459821955157206 4.007660392135334 0 0 0
23131 2 1 0 26.87529528477022 22.381882520690517 4.037493918075982 0 0 0
23132 2 1 0 28.015372871589943 22.22211211621269 4.930422616424353 0 0 0
8784 2 4 0 29.70428972801642 22.33315283554341 1.900652089867405 0 0 0
8785 2 1 0 28.89776793637798 22.253641001854703 2.4556607343063783 0 0 0
8786 2 1 0 30.362233176791282 22.409930734829462 2.606722080147466 0 0 0
4978 2 1 0 2.6393319643981625 28.589324744148215 3.932662745631214 1 0 1
6456 2 4 0 0.660354402497449 27.22850132490806 8.811176755447963 0 0 0
20890 2 1 0 9.08877991586953 9.579097820796692 29.67190493004573 0 1 0
18569 2 1 0 1.169804948697157 9.941365067288542 1.0116909015590476 1 0 1
7146 2 4 0 30.668496375105228 8.5237863798004 24.933398619785923 0 0 0
21569 2 1 0 1.4053026134541284 27.80459531566206 0.7514240251741292 1 -1 0
3327 2 4 0 30.74172904007971 23.916124910900013 16.29346970596374 1 0 0
21652 2 1 0 7.816594215593126 27.32107422460279 4.382781265991927 0 0 1
2918 2 1 0 4.781704988387997 29.919929219124327 4.574928232435316 0 0 1
10460 2 1 0 6.770630861769936 26.713574600891107 1.903574279526731 1 0 1
11996 2 1 0 6.880905461599174 30.092461016945546 3.2795732892265113 0 -1 1
15459 2 4 0 5.130088824558491 30.742603517486828 3.1275087216371564 0 0 1
15460 2 1 0 5.123295231424435 30.71819522727723 2.1498395609795575 0 0 1
1766 1 1 0 25.31881565005063 29.684892366216083 28.87964520899741 0 0 0
18610 2 1 0 20.213347557795448 30.431209121046024 2.0431447499915536 0 0 1
16889 2 1 0 19.260134593128214 0.05265947395354499 15.082071823085034 0 1 0
15096 2 4 0 21.82879459802124 0.9792518868112234 16.733461702391388 0 0 1
11994 2 4 0 7.832231566270129 29.930492525210315 3.209609628221272 0 -1 1
11995 2 1 0 8.02812871071911 29.709479453283468 2.2598817225952748 0 -1 1
21651 2 4 0 8.569545339180344 27.54307257209145 4.966573015457591 0 0 1
21653 2 1 0 8.75572556391342 28.446881251065292 4.678044593595885 0 0 1
21952 2 1 0 15.486950108891525 29.61916057617293 4.306671175233213 0 1 0
21953 2 1 0 14.851104180391106 28.588885960569364 5.064134724044782 0 1 0
8850 2 4 0 16.382357347130956 29.67430409916933 2.3544126875305933 0 0 0
8851 2 1 0 16.856173651605946 28.870065515878434 2.3391764223332303 0 0 0
8852 2 1 0 16.014389240704382 29.900470338290393 1.4401148624795708 0 0 0
10422 2 4 0 15.61748316618904 30.48589983195534 9.794598824968864 0 0 0
21951 2 4 0 15.369972871491965 29.381543825351237 5.204202183672838 0 1 0
19403 2 1 0 14.823427039180581 27.995633005466818 1.012151982960567 0 0 0
22587 2 4 0 17.98603461714054 27.313669397280076 2.992331142658613 0 0 1
2704 2 1 0 26.728288522991548 21.93943648085647 0.37596608937704096 0 1 1
18609 2 4 0 19.806629002372876 30.16281916750664 1.2448404701354125 0 0 1